    3
Geometry Step: 16
    O      0.00000000     -0.75265708     -0.00000000      6.50958502
    H      0.00000000     -0.12367146      0.76390832      0.74520749
    H     -0.00000000     -0.12367146     -0.76390832      0.74520749
